# vtk DataFile Version 3.0
vtk output
ASCII
DATASET POLYDATA
POINTS 252 float
8.33333 8 8 8.31702 8.10301 8 8.26967 8.19593 8 
8.19593 8.26967 8 8.10301 8.31702 8 8 8.33333 8 
7.89699 8.31702 8 7.80407 8.26967 8 7.73033 8.19593 8 
7.68298 8.10301 8 7.66667 8 8 7.68298 7.89699 8 
7.73033 7.80407 8 7.80407 7.73033 8 7.89699 7.68298 8 
8 7.66667 8 8.10301 7.68298 8 8.19593 7.73033 8 
8.26967 7.80407 8 8.31702 7.89699 8 8.33333 8 8 
8.66667 8 8 8.63404 8.20601 8 8.53934 8.39186 8 
8.39186 8.53934 8 8.20601 8.63404 8 8 8.66667 8 
7.79399 8.63404 8 7.60814 8.53934 8 7.46066 8.39186 8 
7.36596 8.20601 8 7.33333 8 8 7.36596 7.79399 8 
7.46066 7.60814 8 7.60814 7.46066 8 7.79399 7.36596 8 
8 7.33333 8 8.20601 7.36596 8 8.39186 7.46066 8 
8.53934 7.60814 8 8.63404 7.79399 8 8.66667 8 8 
9 8 8 8.95106 8.30902 8 8.80902 8.58779 8 
8.58779 8.80902 8 8.30902 8.95106 8 8 9 8 
7.69098 8.95106 8 7.41221 8.80902 8 7.19098 8.58779 8 
7.04894 8.30902 8 7 8 8 7.04894 7.69098 8 
7.19098 7.41221 8 7.41221 7.19098 8 7.69098 7.04894 8 
8 7 8 8.30902 7.04894 8 8.58779 7.19098 8 
8.80902 7.41221 8 8.95106 7.69098 8 9 8 8 
9.33333 8 8 9.26807 8.41202 8 9.07869 8.78371 8 
8.78371 9.07869 8 8.41202 9.26807 8 8 9.33333 8 
7.58798 9.26807 8 7.21629 9.07869 8 6.92131 8.78371 8 
6.73192 8.41202 8 6.66667 8 8 6.73192 7.58798 8 
6.92131 7.21629 8 7.21629 6.92131 8 7.58798 6.73192 8 
8 6.66667 8 8.41202 6.73192 8 8.78371 6.92131 8 
9.07869 7.21629 8 9.26807 7.58798 8 9.33333 8 8 
9.66667 8 8 9.58509 8.51503 8 9.34836 8.97964 8 
8.97964 9.34836 8 8.51503 9.58509 8 8 9.66667 8 
7.48497 9.58509 8 7.02036 9.34836 8 6.65164 8.97964 8 
6.41491 8.51503 8 6.33333 8 8 6.41491 7.48497 8 
6.65164 7.02036 8 7.02036 6.65164 8 7.48497 6.41491 8 
8 6.33333 8 8.51503 6.41491 8 8.97964 6.65164 8 
9.34836 7.02036 8 9.58509 7.48497 8 9.66667 8 8 
10 8 8 9.90211 8.61803 8 9.61803 9.17557 8 
9.17557 9.61803 8 8.61803 9.90211 8 8 10 8 
7.38197 9.90211 8 6.82443 9.61803 8 6.38197 9.17557 8 
6.09789 8.61803 8 6 8 8 6.09789 7.38197 8 
6.38197 6.82443 8 6.82443 6.38197 8 7.38197 6.09789 8 
8 6 8 8.61803 6.09789 8 9.17557 6.38197 8 
9.61803 6.82443 8 9.90211 7.38197 8 10 8 8 
10.3333 8 8 10.2191 8.72104 8 9.88771 9.3715 8 
9.3715 9.88771 8 8.72104 10.2191 8 8 10.3333 8 
7.27896 10.2191 8 6.6285 9.88771 8 6.11229 9.3715 8 
5.78087 8.72104 8 5.66667 8 8 5.78087 7.27896 8 
6.11229 6.6285 8 6.6285 6.11229 8 7.27896 5.78087 8 
8 5.66667 8 8.72104 5.78087 8 9.3715 6.11229 8 
9.88771 6.6285 8 10.2191 7.27896 8 10.3333 8 8 
10.6667 8 8 10.5362 8.82405 8 10.1574 9.56743 8 
9.56743 10.1574 8 8.82405 10.5362 8 8 10.6667 8 
7.17595 10.5362 8 6.43257 10.1574 8 5.84262 9.56743 8 
5.46385 8.82405 8 5.33333 8 8 5.46385 7.17595 8 
5.84262 6.43257 8 6.43257 5.84262 8 7.17595 5.46385 8 
8 5.33333 8 8.82405 5.46385 8 9.56743 5.84262 8 
10.1574 6.43257 8 10.5362 7.17595 8 10.6667 8 8 
11 8 8 10.8532 8.92705 8 10.4271 9.76336 8 
9.76336 10.4271 8 8.92705 10.8532 8 8 11 8 
7.07295 10.8532 8 6.23664 10.4271 8 5.57295 9.76336 8 
5.14683 8.92705 8 5 8 8 5.14683 7.07295 8 
5.57295 6.23664 8 6.23664 5.57295 8 7.07295 5.14683 8 
8 5 8 8.92705 5.14683 8 9.76336 5.57295 8 
10.4271 6.23664 8 10.8532 7.07295 8 11 8 8 
11.3333 8 8 11.1702 9.03006 8 10.6967 9.95928 8 
9.95928 10.6967 8 9.03006 11.1702 8 8 11.3333 8 
6.96994 11.1702 8 6.04072 10.6967 8 5.30328 9.95928 8 
4.82981 9.03006 8 4.66667 8 8 4.82981 6.96994 8 
5.30328 6.04072 8 6.04072 5.30328 8 6.96994 4.82981 8 
8 4.66667 8 9.03006 4.82981 8 9.95928 5.30328 8 
10.6967 6.04072 8 11.1702 6.96994 8 11.3333 8 8 
11.6667 8 8 11.4872 9.13306 8 10.9664 10.1552 8 
10.1552 10.9664 8 9.13306 11.4872 8 8 11.6667 8 
6.86694 11.4872 8 5.84479 10.9664 8 5.0336 10.1552 8 
4.51279 9.13306 8 4.33333 8 8 4.51279 6.86694 8 
5.0336 5.84479 8 5.84479 5.0336 8 6.86694 4.51279 8 
8 4.33333 8 9.13306 4.51279 8 10.1552 5.0336 8 
10.9664 5.84479 8 11.4872 6.86694 8 11.6667 8 8 
12 8 8 11.8042 9.23607 8 11.2361 10.3511 8 
10.3511 11.2361 8 9.23607 11.8042 8 8 12 8 
6.76393 11.8042 8 5.64886 11.2361 8 4.76393 10.3511 8 
4.19577 9.23607 8 4 8 8 4.19577 6.76393 8 
4.76393 5.64886 8 5.64886 4.76393 8 6.76393 4.19577 8 
8 4 8 9.23607 4.19577 8 10.3511 4.76393 8 
11.2361 5.64886 8 11.8042 6.76393 8 12 8 8 

LINES 12 264
21 0 1 2 3 4 5 6 7 8 9 10 11 12 13 14 15 16 17 18 19 20 
21 21 22 23 24 25 26 27 28 29 30 31 32 33 34 35 36 37 38 39 40 41 
21 42 43 44 45 46 47 48 49 50 51 52 53 54 55 56 57 58 59 60 61 62 
21 63 64 65 66 67 68 69 70 71 72 73 74 75 76 77 78 79 80 81 82 83 
21 84 85 86 87 88 89 90 91 92 93 94 95 96 97 98 99 100 101 102 103 104 
21 105 106 107 108 109 110 111 112 113 114 115 116 117 118 119 120 121 122 123 124 125 
21 126 127 128 129 130 131 132 133 134 135 136 137 138 139 140 141 142 143 144 145 146 
21 147 148 149 150 151 152 153 154 155 156 157 158 159 160 161 162 163 164 165 166 167 
21 168 169 170 171 172 173 174 175 176 177 178 179 180 181 182 183 184 185 186 187 188 
21 189 190 191 192 193 194 195 196 197 198 199 200 201 202 203 204 205 206 207 208 209 
21 210 211 212 213 214 215 216 217 218 219 220 221 222 223 224 225 226 227 228 229 230 
21 231 232 233 234 235 236 237 238 239 240 241 242 243 244 245 246 247 248 249 250 251 

POINT_DATA 252
SCALARS DDF double
LOOKUP_TABLE default
0.089782 0.0297099 0.0758164 0.0481231 0.0448924 0.0418467 0.0388404 0.115013 0.0455633 
0.023705 0 0.023705 0.124477 0.0326723 0.0388404 0.0401668 0.0388404 0.110477 
0.0341781 0.0714481 0.089782 0.0583128 0.0183524 0.0453099 0.123194 0.0481517 0.0429571 
0.0416613 0.123194 0.0252052 0.0741048 0 0.0741048 0.0252052 0.123194 0.0416613 
0.0448839 0.130809 0.0350174 0.0362516 0.0177839 0.0583128 0.0681529 0.0371753 0.0595986 
0.0433026 0.0516632 0 0 0 0 0 0 0 
0 0 0 0 0.0516632 0.0433026 0.0595986 0.0392699 0.0697298 
0.0499789 0.0597822 0.0436915 0 0 0 0 0 0 
0 0 0 0 0 0 0 0 0 
0.0436915 0.0597822 0.0499789 0.0211159 0.0564918 0 0 0 0 
0 0 0 0 0 0 0 0 0 
0 0 0 0 0.0564918 0.0211159 0.060589 0.0384762 0 
0 0 0 0 0 0 0 0 0 
0 0 0 0 0 0 0 0.0384762 0.0392706 
0.024131 0 0 0 0 0 0 0 0 
0 0 0 0 0 0 0 0 0 
0 0 0.0209066 0.0393725 0 0 0 0 0 
0 0 0 0 0 0 0 0 0 
0 0 0 0 0 0.0209066 2.10734e-08 0 0 
0 0 0 0 0 0 0 0 0 
0 0 0 0 0 0 0 0 2.10734e-08 
2.10734e-08 0 0 0 0 0 0 0 0 
0 0 0 0 0 0 0 0 0 
0 0 1.49012e-08 0 0 0 0 0 0 
0 0 0 0 0 0 0 0 0 
0 0 0 0 0 0 2.10734e-08 0 0 
0 0 0 0 0 0 0 0 0 
0 0 0 0 0 0 0 0 2.10734e-08 

FIELD FieldData 1
values 1 252 double
0.079544 0.016526 0.034493 0.026853 0.024076 0.022442 0.020831 0.061597 0.024346 
0.023473 0 0.023473 0.06647 0.017509 0.020831 0.022442 0.020831 0.061597 
0.045575 0.057492 0.076968 0.058024 0.010423 0.022782 0.057507 0.022446 0.020923 
0.01942 0.057507 0.022782 0.017656 0 0.017656 0.022782 0.057507 0.01942 
0.020923 0.061017 0.016336 0.01696 0.010942 0.05379 0.06921 0.041671 0.024643 
0.062376 0.0211 0.022732 0.06624 0.062376 0.018347 0.017656 0 0.017272 
0.024643 0.062376 0.0211 0.022732 0.06624 0.062376 0.018347 0.0424 0.067586 
0.071751 0.017656 0.026483 0.066547 0.022307 0.02404 0.070298 0.066547 0.019911 
0.017656 0 0.017656 0.014381 0.066547 0.022307 0.023476 0.070298 0.018853 
0.019718 0.017656 0.071751 0.090658 0.027402 0.027389 0.068171 0.026421 0.02404 
0.072024 0.057693 0.020386 0.018057 0 0.018057 0.02675 0.057693 0.022857 
0.024632 0.072024 0.068171 0.020386 0.018057 0.090658 0.071518 0.019332 0.029428 
0.050956 0.024617 0.026528 0.077551 0.073367 0.021905 0.02728 0 0.02728 
0.028692 0.073367 0.024617 0.026528 0.077551 0.049079 0.021905 0.019332 0.074956 
0.065231 0.020801 0.031796 0.079418 0.02667 0.02874 0.083994 0.079418 0.023667 
0.038442 0 0.038442 0.030938 0.079418 0.02667 0.02874 0.083994 0.077224 
0.023667 0.020271 0.068597 0.051815 0.023594 0.03635 0.091117 0.030653 0.031974 
0.096471 0.091117 0.046377 0.054952 0 0.054952 0.018648 0.091117 0.030653 
0.03303 0.096471 0.091117 0.027059 0.023594 0.051815 0.238987 0.042503 0.043709 
0.031289 0.037178 0 0 0 0 0 0 0 
0 0 0 0 0.037178 0.031289 0.043709 0.042503 0.238987 
0.1623 0.042813 0.029986 0 0 0 0 0 0 
0 0 0 0 0 0 0 0 0 
0.029986 0.042813 0.15246 0.103758 0.038476 0 0 0 0 
0 0 0 0 0 0 0 0 0 
0 0 0 0 0.038476 0.103758 0.055746 0.034301 0.013375 
0.033274 0.011154 0.01202 0.035149 0.033274 0.009955 0.008828 0 0.017272 
0.02675 0.066547 0.022307 0.02404 0.070298 0.064999 0.019911 0.043129 0.06423 

