# vtk DataFile Version 3.0
vtk output
ASCII
DATASET POLYDATA
POINTS 242 float
6 6 6 6.4 6 6 6.8 6 6 
7.2 6 6 7.6 6 6 8 6 6 
8.4 6 6 8.8 6 6 9.2 6 6 
9.6 6 6 10 6 6 2 6 6 
2.4 6 6 2.8 6 6 3.2 6 6 
3.6 6 6 4 6 6 4.4 6 6 
4.8 6 6 5.2 6 6 5.6 6 6 
6 6 6 6 6 6 6.38042 6.12361 6 
6.76085 6.24721 6 7.14127 6.37082 6 7.52169 6.49443 6 
7.90211 6.61803 6 8.28254 6.74164 6 8.66296 6.86525 6 
9.04338 6.98885 6 9.4238 7.11246 6 9.80423 7.23607 6 
2.19577 4.76393 6 2.5762 4.88754 6 2.95662 5.01115 6 
3.33704 5.13475 6 3.71746 5.25836 6 4.09789 5.38197 6 
4.47831 5.50557 6 4.85873 5.62918 6 5.23915 5.75279 6 
5.61958 5.87639 6 6 6 6 6 6 6 
6.32361 6.23511 6 6.64721 6.47023 6 6.97082 6.70534 6 
7.29443 6.94046 6 7.61803 7.17557 6 7.94164 7.41068 6 
8.26525 7.6458 6 8.58885 7.88091 6 8.91246 8.11603 6 
9.23607 8.35114 6 2.76393 3.64886 6 3.08754 3.88397 6 
3.41115 4.11909 6 3.73475 4.3542 6 4.05836 4.58932 6 
4.38197 4.82443 6 4.70557 5.05954 6 5.02918 5.29466 6 
5.35279 5.52977 6 5.67639 5.76489 6 6 6 6 
6 6 6 6.23511 6.32361 6 6.47023 6.64721 6 
6.70534 6.97082 6 6.94046 7.29443 6 7.17557 7.61803 6 
7.41068 7.94164 6 7.6458 8.26525 6 7.88091 8.58885 6 
8.11603 8.91246 6 8.35114 9.23607 6 3.64886 2.76393 6 
3.88397 3.08754 6 4.11909 3.41115 6 4.3542 3.73475 6 
4.58932 4.05836 6 4.82443 4.38197 6 5.05954 4.70557 6 
5.29466 5.02918 6 5.52977 5.35279 6 5.76489 5.67639 6 
6 6 6 6 6 6 6.12361 6.38042 6 
6.24721 6.76085 6 6.37082 7.14127 6 6.49443 7.52169 6 
6.61803 7.90211 6 6.74164 8.28254 6 6.86525 8.66296 6 
6.98885 9.04338 6 7.11246 9.4238 6 7.23607 9.80423 6 
4.76393 2.19577 6 4.88754 2.5762 6 5.01115 2.95662 6 
5.13475 3.33704 6 5.25836 3.71746 6 5.38197 4.09789 6 
5.50557 4.47831 6 5.62918 4.85873 6 5.75279 5.23915 6 
5.87639 5.61958 6 6 6 6 6 6 6 
6 6.4 6 6 6.8 6 6 7.2 6 
6 7.6 6 6 8 6 6 8.4 6 
6 8.8 6 6 9.2 6 6 9.6 6 
6 10 6 6 2 6 6 2.4 6 
6 2.8 6 6 3.2 6 6 3.6 6 
6 4 6 6 4.4 6 6 4.8 6 
6 5.2 6 6 5.6 6 6 6 6 
6 6 6 5.87639 6.38042 6 5.75279 6.76085 6 
5.62918 7.14127 6 5.50557 7.52169 6 5.38197 7.90211 6 
5.25836 8.28254 6 5.13475 8.66296 6 5.01115 9.04338 6 
4.88754 9.4238 6 4.76393 9.80423 6 7.23607 2.19577 6 
7.11246 2.5762 6 6.98885 2.95662 6 6.86525 3.33704 6 
6.74164 3.71746 6 6.61803 4.09789 6 6.49443 4.47831 6 
6.37082 4.85873 6 6.24721 5.23915 6 6.12361 5.61958 6 
6 6 6 6 6 6 5.76489 6.32361 6 
5.52977 6.64721 6 5.29466 6.97082 6 5.05954 7.29443 6 
4.82443 7.61803 6 4.58932 7.94164 6 4.3542 8.26525 6 
4.11909 8.58885 6 3.88397 8.91246 6 3.64886 9.23607 6 
8.35114 2.76393 6 8.11603 3.08754 6 7.88091 3.41115 6 
7.6458 3.73475 6 7.41068 4.05836 6 7.17557 4.38197 6 
6.94046 4.70557 6 6.70534 5.02918 6 6.47023 5.35279 6 
6.23511 5.67639 6 6 6 6 6 6 6 
5.67639 6.23511 6 5.35279 6.47023 6 5.02918 6.70534 6 
4.70557 6.94046 6 4.38197 7.17557 6 4.05836 7.41068 6 
3.73475 7.6458 6 3.41115 7.88091 6 3.08754 8.11603 6 
2.76393 8.35114 6 9.23607 3.64886 6 8.91246 3.88397 6 
8.58885 4.11909 6 8.26525 4.3542 6 7.94164 4.58932 6 
7.61803 4.82443 6 7.29443 5.05954 6 6.97082 5.29466 6 
6.64721 5.52977 6 6.32361 5.76489 6 6 6 6 
6 6 6 5.61958 6.12361 6 5.23915 6.24721 6 
4.85873 6.37082 6 4.47831 6.49443 6 4.09789 6.61803 6 
3.71746 6.74164 6 3.33704 6.86525 6 2.95662 6.98885 6 
2.5762 7.11246 6 2.19577 7.23607 6 9.80423 4.76393 6 
9.4238 4.88754 6 9.04338 5.01115 6 8.66296 5.13475 6 
8.28254 5.25836 6 7.90211 5.38197 6 7.52169 5.50557 6 
7.14127 5.62918 6 6.76085 5.75279 6 6.38042 5.87639 6 
6 6 6 6 6 6 5.6 6 6 
5.2 6 6 4.8 6 6 4.4 6 6 
4 6 6 3.6 6 6 3.2 6 6 
2.8 6 6 2.4 6 6 2 6 6 
10 6 6 9.6 6 6 9.2 6 6 
8.8 6 6 8.4 6 6 8 6 6 
7.6 6 6 7.2 6 6 6.8 6 6 
6.4 6 6 6 6 6 
LINES 22 264
11 0 1 2 3 4 5 6 7 8 9 10 
11 11 12 13 14 15 16 17 18 19 20 21 
11 22 23 24 25 26 27 28 29 30 31 32 
11 33 34 35 36 37 38 39 40 41 42 43 
11 44 45 46 47 48 49 50 51 52 53 54 
11 55 56 57 58 59 60 61 62 63 64 65 
11 66 67 68 69 70 71 72 73 74 75 76 
11 77 78 79 80 81 82 83 84 85 86 87 
11 88 89 90 91 92 93 94 95 96 97 98 
11 99 100 101 102 103 104 105 106 107 108 109 
11 110 111 112 113 114 115 116 117 118 119 120 
11 121 122 123 124 125 126 127 128 129 130 131 
11 132 133 134 135 136 137 138 139 140 141 142 
11 143 144 145 146 147 148 149 150 151 152 153 
11 154 155 156 157 158 159 160 161 162 163 164 
11 165 166 167 168 169 170 171 172 173 174 175 
11 176 177 178 179 180 181 182 183 184 185 186 
11 187 188 189 190 191 192 193 194 195 196 197 
11 198 199 200 201 202 203 204 205 206 207 208 
11 209 210 211 212 213 214 215 216 217 218 219 
11 220 221 222 223 224 225 226 227 228 229 230 
11 231 232 233 234 235 236 237 238 239 240 241 

POINT_DATA 242
SCALARS DDF double
LOOKUP_TABLE default
0.309986 0.664601 0.871531 0.820045 0.705756 0.605961 0.529866 0.503869 0.392699 
0.366326 -1 -1 0.366326 0.392699 0.503869 0.529866 0.605961 0.705756 
0.820045 0.871531 0.705749 0.309986 0.303614 0.72364 0.794048 0.738044 0.603152 
0.525098 0.475948 0.4638 0.366788 0.345326 -1 -1 0.316702 0.366326 
0.435753 0.459667 0.525098 0.603152 0.738044 0.794048 0.84946 0.303614 0.250799 
0.807795 0.80493 0.731276 0.634839 0.561983 0.519584 0.453794 0.419072 -1 
-1 -1 -1 0.419072 0.453794 0.497213 0.561983 0.634839 0.731276 
0.778969 0.80028 0.250799 0.224366 0.894594 0.833506 0.756847 0.672277 0.606917 
0.562838 0.522889 0.377747 -1 -1 -1 -1 0.424493 0.575573 
0.578252 0.606917 0.651103 0.726 0.807545 0.859277 0.224366 0.28062 1.0137 
0.883714 0.873578 0.702394 0.60169 0.523985 0.494512 0.377747 -1 -1 
-1 -1 0.424493 0.575573 0.556239 0.630998 0.759231 0.873578 0.857752 
0.901034 0.28062 0 0.91056 0.912929 0.842241 0.702394 0.60169 0.523985 
0.494512 0.377747 -1 -1 -1 -1 0.424493 0.575573 0.556239 
0.630998 0.730813 0.86645 0.891509 0.91056 0 0.28062 0.944087 0.857752 
0.85344 0.730813 0.60169 0.523985 0.494512 0.377747 -1 -1 -1 
-1 0.424493 0.575573 0.556239 0.630998 0.730813 0.873578 0.883714 1.04541 
0.28062 0.199337 0.859277 0.807545 0.726 0.651103 0.583269 0.562838 0.522889 
0.377747 -1 -1 -1 -1 0.424493 0.575573 0.592145 0.614547 
0.672277 0.756847 0.833506 0.926922 0.199337 0.250799 0.859279 0.778969 0.731276 
0.612718 0.561983 0.497213 0.468885 0.419072 -1 -1 -1 -1 
0.423489 0.468885 0.519584 0.56261 0.646919 0.75096 0.80493 0.897174 0.250799 
0.258059 0.748854 0.789302 0.719009 0.582419 0.504637 0.459667 0.4638 0.366326 
0.316702 -1 -1 0.345326 0.366788 0.4638 0.475948 0.5325 0.623885 
0.738044 0.794048 0.862412 0.258059 0.309986 0.705749 0.871531 0.820045 0.705756 
0.605961 0.529866 0.503869 0.392699 0.366326 -1 -1 0.366326 0.392699 
0.503869 0.529866 0.605961 0.705756 0.820045 0.871531 0.664601 0.309986 
FIELD FieldData 1
values 1 242 double
0.309986 0.664601 0.871531 0.820045 0.705756 0.605961 0.529866 0.503869 0.392699 
0.366326 -1 -1 0.366326 0.392699 0.503869 0.529866 0.605961 0.705756 
0.820045 0.871531 0.705749 0.309986 0.303614 0.72364 0.794048 0.738044 0.603152 
0.525098 0.475948 0.4638 0.366788 0.345326 -1 -1 0.316702 0.366326 
0.435753 0.459667 0.525098 0.603152 0.738044 0.794048 0.84946 0.303614 0.250799 
0.807795 0.80493 0.731276 0.634839 0.561983 0.519584 0.453794 0.419072 -1 
-1 -1 -1 0.419072 0.453794 0.497213 0.561983 0.634839 0.731276 
0.778969 0.80028 0.250799 0.224366 0.894594 0.833506 0.756847 0.672277 0.606917 
0.562838 0.522889 0.377747 -1 -1 -1 -1 0.424493 0.575573 
0.578252 0.606917 0.651103 0.726 0.807545 0.859277 0.224366 0.28062 1.0137 
0.883714 0.873578 0.702394 0.60169 0.523985 0.494512 0.377747 -1 -1 
-1 -1 0.424493 0.575573 0.556239 0.630998 0.759231 0.873578 0.857752 
0.901034 0.28062 0 0.91056 0.912929 0.842241 0.702394 0.60169 0.523985 
0.494512 0.377747 -1 -1 -1 -1 0.424493 0.575573 0.556239 
0.630998 0.730813 0.86645 0.891509 0.91056 0 0.28062 0.944087 0.857752 
0.85344 0.730813 0.60169 0.523985 0.494512 0.377747 -1 -1 -1 
-1 0.424493 0.575573 0.556239 0.630998 0.730813 0.873578 0.883714 1.04541 
0.28062 0.199337 0.859277 0.807545 0.726 0.651103 0.583269 0.562838 0.522889 
0.377747 -1 -1 -1 -1 0.424493 0.575573 0.592145 0.614547 
0.672277 0.756847 0.833506 0.926922 0.199337 0.250799 0.859279 0.778969 0.731276 
0.612718 0.561983 0.497213 0.468885 0.419072 -1 -1 -1 -1 
0.423489 0.468885 0.519584 0.56261 0.646919 0.75096 0.80493 0.897174 0.250799 
0.258059 0.748854 0.789302 0.719009 0.582419 0.504637 0.459667 0.4638 0.366326 
0.316702 -1 -1 0.345326 0.366788 0.4638 0.475948 0.5325 0.623885 
0.738044 0.794048 0.862412 0.258059 0.309986 0.705749 0.871531 0.820045 0.705756 
0.605961 0.529866 0.503869 0.392699 0.366326 -1 -1 0.366326 0.392699 
0.503869 0.529866 0.605961 0.705756 0.820045 0.871531 0.664601 0.309986 
